/*--------------------------------*- C++ -*----------------------------------*\
| =========                 |                                                 |
| \\      /  F ield         | OpenFOAM: The Open Source CFD Toolbox           |
|  \\    /   O peration     | Version:  3.0.1                                 |
|   \\  /    A nd           | Web:      www.OpenFOAM.org                      |
|    \\/     M anipulation  |                                                 |
\*---------------------------------------------------------------------------*/
FoamFile
{
    version     2.0;
    format      ascii;
    class       volSymmTensorField;
    location    "0";
    object      symtensorField;
}
// * * * * * * * * * * * * * * * * * * * * * * * * * * * * * * * * * * * * * //

dimensions      [0 0 0 0 0 0 0];

internalField   nonuniform List<symmTensor> 
24
(
(1 1 1 1 1 1)
(1 1 1 1 1 1)
(1 1 1 1 1 1)
(1 1 1 1 1 1)
(1 1 1 1 1 1)
(1 1 1 1 1 1)
(2 2 2 2 2 2)
(2 2 2 2 2 2)
(2 2 2 2 2 2)
(2 2 2 2 2 2)
(2 2 2 2 2 2)
(2 2 2 2 2 2)
(3 3 3 3 3 3)
(3 3 3 3 3 3)
(3 3 3 3 3 3)
(3 3 3 3 3 3)
(3 3 3 3 3 3)
(3 3 3 3 3 3)
(4 4 4 4 4 4)
(4 4 4 4 4 4)
(4 4 4 4 4 4)
(4 4 4 4 4 4)
(4 4 4 4 4 4)
(4 4 4 4 4 4)
)
;

boundaryField
{
    left
    {
        type            zeroGradient;
    }
    right
    {
        type            zeroGradient;
    }
    topWall
    {
        type            zeroGradient;
    }
    inlet
    {
        type            zeroGradient;
    }
    outlet 
    {
        type            zeroGradient;
    }
    bottomWall
    {
        type            zeroGradient;
    }
}


// ************************************************************************* //
