/*--------------------------------*- C++ -*----------------------------------*\
| =========                 |                                                 |
| \\      /  F ield         | OpenFOAM: The Open Source CFD Toolbox           |
|  \\    /   O peration     | Version:  3.0.1                                 |
|   \\  /    A nd           | Web:      www.OpenFOAM.org                      |
|    \\/     M anipulation  |                                                 |
\*---------------------------------------------------------------------------*/
FoamFile
{
    version     2.0;
    format      ascii;
    class       volTensorField;
    location    "0";
    object      tensorField;
}
// * * * * * * * * * * * * * * * * * * * * * * * * * * * * * * * * * * * * * //

dimensions      [0 0 0 0 0 0 0];

internalField   nonuniform List<tensor> 
3770
(
(0.944444 0.944444 0.944444 0.944444 0.944444 0.944444 0.05 0.05 0.05)
(0.944445 0.944445 0.944445 0.944445 0.944445 0.944445 0.15 0.15 0.15)
(0.944445 0.944445 0.944445 0.944445 0.944445 0.944445 0.25 0.25 0.25)
(0.944444 0.944444 0.944444 0.944445 0.944445 0.944445 0.35 0.35 0.35)
(0.944445 0.944445 0.944445 0.944445 0.944445 0.944445 0.45 0.45 0.45)
(0.944445 0.944445 0.944445 0.944445 0.944445 0.944445 0.55 0.55 0.55)
(0.944445 0.944445 0.944445 0.944445 0.944445 0.944445 0.65 0.65 0.65)
(0.944444 0.944444 0.944444 0.944444 0.944444 0.944444 0.75 0.75 0.75)
(0.944445 0.944445 0.944445 0.944445 0.944445 0.944445 0.85 0.85 0.85)
(0.944445 0.944445 0.944445 0.944445 0.944445 0.944445 0.95 0.95 0.95)
(0.944444 0.944444 0.944444 0.833333 0.833333 0.833333 0.05 0.05 0.05)
(0.944445 0.944445 0.944445 0.833333 0.833333 0.833333 0.15 0.15 0.15)
(0.944445 0.944445 0.944445 0.833334 0.833334 0.833334 0.25 0.25 0.25)
(0.944444 0.944444 0.944444 0.833333 0.833333 0.833333 0.35 0.35 0.35)
(0.944444 0.944444 0.944444 0.833333 0.833333 0.833333 0.45 0.45 0.45)
(0.944444 0.944444 0.944444 0.833333 0.833333 0.833333 0.55 0.55 0.55)
(0.944444 0.944444 0.944444 0.833333 0.833333 0.833333 0.65 0.65 0.65)
(0.944445 0.944445 0.944445 0.833334 0.833334 0.833334 0.75 0.75 0.75)
(0.944445 0.944445 0.944445 0.833333 0.833333 0.833333 0.85 0.85 0.85)
(0.944444 0.944444 0.944444 0.833334 0.833334 0.833334 0.95 0.95 0.95)
(0.944444 0.944444 0.944444 0.722222 0.722222 0.722222 0.05 0.05 0.05)
(0.944444 0.944444 0.944444 0.722222 0.722222 0.722222 0.15 0.15 0.15)
(0.944445 0.944445 0.944445 0.722222 0.722222 0.722222 0.25 0.25 0.25)
(0.944444 0.944444 0.944444 0.722222 0.722222 0.722222 0.35 0.35 0.35)
(0.944445 0.944445 0.944445 0.722222 0.722222 0.722222 0.45 0.45 0.45)
(0.944445 0.944445 0.944445 0.722223 0.722223 0.722223 0.55 0.55 0.55)
(0.944445 0.944445 0.944445 0.722222 0.722222 0.722222 0.65 0.65 0.65)
(0.944444 0.944444 0.944444 0.722222 0.722222 0.722222 0.75 0.75 0.75)
(0.944445 0.944445 0.944445 0.722223 0.722223 0.722223 0.85 0.85 0.85)
(0.944445 0.944445 0.944445 0.722222 0.722222 0.722222 0.95 0.95 0.95)
(0.944444 0.944444 0.944444 0.611111 0.611111 0.611111 0.05 0.05 0.05)
(0.944445 0.944445 0.944445 0.611112 0.611112 0.611112 0.15 0.15 0.15)
(0.944444 0.944444 0.944444 0.611112 0.611112 0.611112 0.25 0.25 0.25)
(0.944444 0.944444 0.944444 0.611111 0.611111 0.611111 0.35 0.35 0.35)
(0.944444 0.944444 0.944444 0.611112 0.611112 0.611112 0.45 0.45 0.45)
(0.944444 0.944444 0.944444 0.611112 0.611112 0.611112 0.55 0.55 0.55)
(0.944444 0.944444 0.944444 0.611112 0.611112 0.611112 0.65 0.65 0.65)
(0.944445 0.944445 0.944445 0.611112 0.611112 0.611112 0.75 0.75 0.75)
(0.944444 0.944444 0.944444 0.611112 0.611112 0.611112 0.85 0.85 0.85)
(0.944445 0.944445 0.944445 0.611112 0.611112 0.611112 0.95 0.95 0.95)
(0.944444 0.944444 0.944444 0.5 0.5 0.5 0.05 0.05 0.05)
(0.944445 0.944445 0.944445 0.5 0.5 0.5 0.15 0.15 0.15)
(0.944445 0.944445 0.944445 0.5 0.5 0.5 0.25 0.25 0.25)
(0.944444 0.944444 0.944444 0.5 0.5 0.5 0.35 0.35 0.35)
(0.944444 0.944444 0.944444 0.5 0.5 0.5 0.45 0.45 0.45)
(0.944444 0.944444 0.944444 0.5 0.5 0.5 0.55 0.55 0.55)
(0.944444 0.944444 0.944444 0.5 0.5 0.5 0.65 0.65 0.65)
(0.944445 0.944445 0.944445 0.5 0.5 0.5 0.75 0.75 0.75)
(0.944444 0.944444 0.944444 0.5 0.5 0.5 0.85 0.85 0.85)
(0.944444 0.944444 0.944444 0.5 0.5 0.5 0.95 0.95 0.95)
(0.944444 0.944444 0.944444 0.388888 0.388888 0.388888 0.05 0.05 0.05)
(0.944444 0.944444 0.944444 0.388888 0.388888 0.388888 0.15 0.15 0.15)
(0.944445 0.944445 0.944445 0.388889 0.388889 0.388889 0.25 0.25 0.25)
(0.944445 0.944445 0.944445 0.388888 0.388888 0.388888 0.35 0.35 0.35)
(0.944444 0.944444 0.944444 0.388889 0.388889 0.388889 0.45 0.45 0.45)
(0.944445 0.944445 0.944445 0.388888 0.388888 0.388888 0.55 0.55 0.55)
(0.944444 0.944444 0.944444 0.388888 0.388888 0.388888 0.65 0.65 0.65)
(0.944445 0.944445 0.944445 0.388888 0.388888 0.388888 0.75 0.75 0.75)
(0.944444 0.944444 0.944444 0.388888 0.388888 0.388888 0.85 0.85 0.85)
(0.944444 0.944444 0.944444 0.388888 0.388888 0.388888 0.95 0.95 0.95)
(0.944444 0.944444 0.944444 0.277778 0.277778 0.277778 0.05 0.05 0.05)
(0.944445 0.944445 0.944445 0.277778 0.277778 0.277778 0.15 0.15 0.15)
(0.944444 0.944444 0.944444 0.277777 0.277777 0.277777 0.25 0.25 0.25)
(0.944445 0.944445 0.944445 0.277778 0.277778 0.277778 0.35 0.35 0.35)
(0.944444 0.944444 0.944444 0.277777 0.277777 0.277777 0.45 0.45 0.45)
(0.944444 0.944444 0.944444 0.277777 0.277777 0.277777 0.55 0.55 0.55)
(0.944444 0.944444 0.944444 0.277777 0.277777 0.277777 0.65 0.65 0.65)
(0.944445 0.944445 0.944445 0.277778 0.277778 0.277778 0.75 0.75 0.75)
(0.944444 0.944444 0.944444 0.277777 0.277777 0.277777 0.85 0.85 0.85)
(0.944444 0.944444 0.944444 0.277778 0.277778 0.277778 0.95 0.95 0.95)
(0.944444 0.944444 0.944444 0.166666 0.166666 0.166666 0.05 0.05 0.05)
(0.944445 0.944445 0.944445 0.166666 0.166666 0.166666 0.15 0.15 0.15)
(0.944444 0.944444 0.944444 0.166666 0.166666 0.166666 0.25 0.25 0.25)
(0.944444 0.944444 0.944444 0.166666 0.166666 0.166666 0.35 0.35 0.35)
(0.944444 0.944444 0.944444 0.166666 0.166666 0.166666 0.45 0.45 0.45)
(0.944444 0.944444 0.944444 0.166666 0.166666 0.166666 0.55 0.55 0.55)
(0.944444 0.944444 0.944444 0.166666 0.166666 0.166666 0.65 0.65 0.65)
(0.944444 0.944444 0.944444 0.166666 0.166666 0.166666 0.75 0.75 0.75)
(0.944445 0.944445 0.944445 0.166666 0.166666 0.166666 0.85 0.85 0.85)
(0.944445 0.944445 0.944445 0.166666 0.166666 0.166666 0.95 0.95 0.95)
(0.944444 0.944444 0.944444 0.0555555 0.0555555 0.0555555 0.05 0.05 0.05)
(0.944444 0.944444 0.944444 0.0555555 0.0555555 0.0555555 0.15 0.15 0.15)
(0.944444 0.944444 0.944444 0.0555555 0.0555555 0.0555555 0.25 0.25 0.25)
(0.944444 0.944444 0.944444 0.0555555 0.0555555 0.0555555 0.35 0.35 0.35)
(0.944444 0.944444 0.944444 0.0555555 0.0555555 0.0555555 0.45 0.45 0.45)
(0.944444 0.944444 0.944444 0.0555555 0.0555555 0.0555555 0.55 0.55 0.55)
(0.944444 0.944444 0.944444 0.0555555 0.0555555 0.0555555 0.65 0.65 0.65)
(0.944445 0.944445 0.944445 0.0555555 0.0555555 0.0555555 0.75 0.75 0.75)
(0.944444 0.944444 0.944444 0.0555555 0.0555555 0.0555555 0.85 0.85 0.85)
(0.944445 0.944445 0.944445 0.0555555 0.0555555 0.0555555 0.95 0.95 0.95)
(0.833334 0.833334 0.833334 0.944445 0.944445 0.944445 0.05 0.05 0.05)
(0.833334 0.833334 0.833334 0.944445 0.944445 0.944445 0.15 0.15 0.15)
(0.833334 0.833334 0.833334 0.944445 0.944445 0.944445 0.25 0.25 0.25)
(0.833333 0.833333 0.833333 0.944445 0.944445 0.944445 0.35 0.35 0.35)
(0.833334 0.833334 0.833334 0.944445 0.944445 0.944445 0.45 0.45 0.45)
(0.833334 0.833334 0.833334 0.944444 0.944444 0.944444 0.55 0.55 0.55)
(0.833334 0.833334 0.833334 0.944444 0.944444 0.944444 0.65 0.65 0.65)
(0.833334 0.833334 0.833334 0.944445 0.944445 0.944445 0.75 0.75 0.75)
(0.833334 0.833334 0.833334 0.944444 0.944444 0.944444 0.85 0.85 0.85)
(0.833333 0.833333 0.833333 0.944444 0.944444 0.944444 0.95 0.95 0.95)
(0.833334 0.833334 0.833334 0.833333 0.833333 0.833333 0.05 0.05 0.05)
(0.833333 0.833333 0.833333 0.833333 0.833333 0.833333 0.15 0.15 0.15)
(0.833333 0.833333 0.833333 0.833333 0.833333 0.833333 0.25 0.25 0.25)
(0.833333 0.833333 0.833333 0.833333 0.833333 0.833333 0.35 0.35 0.35)
(0.833333 0.833333 0.833333 0.833333 0.833333 0.833333 0.45 0.45 0.45)
(0.833333 0.833333 0.833333 0.833333 0.833333 0.833333 0.55 0.55 0.55)
(0.833333 0.833333 0.833333 0.833333 0.833333 0.833333 0.65 0.65 0.65)
(0.833334 0.833334 0.833334 0.833333 0.833333 0.833333 0.75 0.75 0.75)
(0.833334 0.833334 0.833334 0.833334 0.833334 0.833334 0.85 0.85 0.85)
(0.833334 0.833334 0.833334 0.833333 0.833333 0.833333 0.95 0.95 0.95)
(0.833334 0.833334 0.833334 0.722222 0.722222 0.722222 0.05 0.05 0.05)
(0.833333 0.833333 0.833333 0.722222 0.722222 0.722222 0.15 0.15 0.15)
(0.833334 0.833334 0.833334 0.722223 0.722223 0.722223 0.25 0.25 0.25)
(0.833334 0.833334 0.833334 0.722222 0.722222 0.722222 0.35 0.35 0.35)
(0.833334 0.833334 0.833334 0.722222 0.722222 0.722222 0.45 0.45 0.45)
(0.833333 0.833333 0.833333 0.722223 0.722223 0.722223 0.55 0.55 0.55)
(0.833333 0.833333 0.833333 0.722222 0.722222 0.722222 0.65 0.65 0.65)
(0.833333 0.833333 0.833333 0.722222 0.722222 0.722222 0.75 0.75 0.75)
(0.833334 0.833334 0.833334 0.722222 0.722222 0.722222 0.85 0.85 0.85)
(0.833333 0.833333 0.833333 0.722222 0.722222 0.722222 0.95 0.95 0.95)
(0.833334 0.833334 0.833334 0.611112 0.611112 0.611112 0.05 0.05 0.05)
(0.833333 0.833333 0.833333 0.611111 0.611111 0.611111 0.15 0.15 0.15)
(0.833333 0.833333 0.833333 0.611112 0.611112 0.611112 0.25 0.25 0.25)
(0.833333 0.833333 0.833333 0.611112 0.611112 0.611112 0.35 0.35 0.35)
(0.833333 0.833333 0.833333 0.611112 0.611112 0.611112 0.45 0.45 0.45)
(0.833333 0.833333 0.833333 0.611112 0.611112 0.611112 0.55 0.55 0.55)
(0.833333 0.833333 0.833333 0.611112 0.611112 0.611112 0.65 0.65 0.65)
(0.833334 0.833334 0.833334 0.611112 0.611112 0.611112 0.75 0.75 0.75)
(0.833333 0.833333 0.833333 0.611112 0.611112 0.611112 0.85 0.85 0.85)
(0.833333 0.833333 0.833333 0.611112 0.611112 0.611112 0.95 0.95 0.95)
(0.833333 0.833333 0.833333 0.5 0.5 0.5 0.05 0.05 0.05)
(0.833334 0.833334 0.833334 0.5 0.5 0.5 0.15 0.15 0.15)
(0.833334 0.833334 0.833334 0.5 0.5 0.5 0.25 0.25 0.25)
(0.833333 0.833333 0.833333 0.5 0.5 0.5 0.35 0.35 0.35)
(0.833334 0.833334 0.833334 0.5 0.5 0.5 0.45 0.45 0.45)
(0.833334 0.833334 0.833334 0.5 0.5 0.5 0.55 0.55 0.55)
(0.833333 0.833333 0.833333 0.5 0.5 0.5 0.65 0.65 0.65)
(0.833333 0.833333 0.833333 0.5 0.5 0.5 0.75 0.75 0.75)
(0.833333 0.833333 0.833333 0.5 0.5 0.5 0.85 0.85 0.85)
(0.833333 0.833333 0.833333 0.5 0.5 0.5 0.95 0.95 0.95)
(0.833334 0.833334 0.833334 0.388889 0.388889 0.388889 0.05 0.05 0.05)
(0.833333 0.833333 0.833333 0.388888 0.388888 0.388888 0.15 0.15 0.15)
(0.833334 0.833334 0.833334 0.388888 0.388888 0.388888 0.25 0.25 0.25)
(0.833333 0.833333 0.833333 0.388889 0.388889 0.388889 0.35 0.35 0.35)
(0.833334 0.833334 0.833334 0.388888 0.388888 0.388888 0.45 0.45 0.45)
(0.833334 0.833334 0.833334 0.388889 0.388889 0.388889 0.55 0.55 0.55)
(0.833334 0.833334 0.833334 0.388888 0.388888 0.388888 0.65 0.65 0.65)
(0.833333 0.833333 0.833333 0.388888 0.388888 0.388888 0.75 0.75 0.75)
(0.833334 0.833334 0.833334 0.388888 0.388888 0.388888 0.85 0.85 0.85)
(0.833334 0.833334 0.833334 0.388889 0.388889 0.388889 0.95 0.95 0.95)
(0.833333 0.833333 0.833333 0.277777 0.277777 0.277777 0.05 0.05 0.05)
(0.833334 0.833334 0.833334 0.277778 0.277778 0.277778 0.15 0.15 0.15)
(0.833333 0.833333 0.833333 0.277778 0.277778 0.277778 0.25 0.25 0.25)
(0.833333 0.833333 0.833333 0.277778 0.277778 0.277778 0.35 0.35 0.35)
(0.833333 0.833333 0.833333 0.277777 0.277777 0.277777 0.45 0.45 0.45)
(0.833333 0.833333 0.833333 0.277778 0.277778 0.277778 0.55 0.55 0.55)
(0.833334 0.833334 0.833334 0.277778 0.277778 0.277778 0.65 0.65 0.65)
(0.833334 0.833334 0.833334 0.277778 0.277778 0.277778 0.75 0.75 0.75)
(0.833334 0.833334 0.833334 0.277778 0.277778 0.277778 0.85 0.85 0.85)
(0.833334 0.833334 0.833334 0.277778 0.277778 0.277778 0.95 0.95 0.95)
(0.833334 0.833334 0.833334 0.166666 0.166666 0.166666 0.05 0.05 0.05)
(0.833333 0.833333 0.833333 0.166666 0.166666 0.166666 0.15 0.15 0.15)
(0.833334 0.833334 0.833334 0.166666 0.166666 0.166666 0.25 0.25 0.25)
(0.833334 0.833334 0.833334 0.166666 0.166666 0.166666 0.35 0.35 0.35)
(0.833333 0.833333 0.833333 0.166666 0.166666 0.166666 0.45 0.45 0.45)
(0.833334 0.833334 0.833334 0.166667 0.166667 0.166667 0.55 0.55 0.55)
(0.833333 0.833333 0.833333 0.166666 0.166666 0.166666 0.65 0.65 0.65)
(0.833334 0.833334 0.833334 0.166666 0.166666 0.166666 0.75 0.75 0.75)
(0.833334 0.833334 0.833334 0.166666 0.166666 0.166666 0.85 0.85 0.85)
(0.833333 0.833333 0.833333 0.166666 0.166666 0.166666 0.95 0.95 0.95)
(0.833334 0.833334 0.833334 0.0555555 0.0555555 0.0555555 0.05 0.05 0.05)
(0.833334 0.833334 0.833334 0.0555555 0.0555555 0.0555555 0.15 0.15 0.15)
(0.833333 0.833333 0.833333 0.0555555 0.0555555 0.0555555 0.25 0.25 0.25)
(0.833333 0.833333 0.833333 0.0555555 0.0555555 0.0555555 0.35 0.35 0.35)
(0.833333 0.833333 0.833333 0.0555555 0.0555555 0.0555555 0.45 0.45 0.45)
(0.833334 0.833334 0.833334 0.0555555 0.0555555 0.0555555 0.55 0.55 0.55)
(0.833333 0.833333 0.833333 0.0555555 0.0555555 0.0555555 0.65 0.65 0.65)
(0.833334 0.833334 0.833334 0.0555555 0.0555555 0.0555555 0.75 0.75 0.75)
(0.833333 0.833333 0.833333 0.0555555 0.0555555 0.0555555 0.85 0.85 0.85)
(0.833333 0.833333 0.833333 0.0555555 0.0555555 0.0555555 0.95 0.95 0.95)
(0.722223 0.722223 0.722223 0.944445 0.944445 0.944445 0.05 0.05 0.05)
(0.722222 0.722222 0.722222 0.944444 0.944444 0.944444 0.15 0.15 0.15)
(0.722222 0.722222 0.722222 0.944445 0.944445 0.944445 0.25 0.25 0.25)
(0.722222 0.722222 0.722222 0.944445 0.944445 0.944445 0.35 0.35 0.35)
(0.722223 0.722223 0.722223 0.944445 0.944445 0.944445 0.45 0.45 0.45)
(0.722223 0.722223 0.722223 0.944445 0.944445 0.944445 0.55 0.55 0.55)
(0.722223 0.722223 0.722223 0.944444 0.944444 0.944444 0.65 0.65 0.65)
(0.722222 0.722222 0.722222 0.944444 0.944444 0.944444 0.75 0.75 0.75)
(0.722223 0.722223 0.722223 0.944445 0.944445 0.944445 0.85 0.85 0.85)
(0.722223 0.722223 0.722223 0.944444 0.944444 0.944444 0.95 0.95 0.95)
(0.722222 0.722222 0.722222 0.833333 0.833333 0.833333 0.05 0.05 0.05)
(0.722222 0.722222 0.722222 0.833333 0.833333 0.833333 0.15 0.15 0.15)
(0.722223 0.722223 0.722223 0.833334 0.833334 0.833334 0.25 0.25 0.25)
(0.722222 0.722222 0.722222 0.833333 0.833333 0.833333 0.35 0.35 0.35)
(0.722222 0.722222 0.722222 0.833334 0.833334 0.833334 0.45 0.45 0.45)
(0.722222 0.722222 0.722222 0.833333 0.833333 0.833333 0.55 0.55 0.55)
(0.722223 0.722223 0.722223 0.833334 0.833334 0.833334 0.65 0.65 0.65)
(0.722222 0.722222 0.722222 0.833333 0.833333 0.833333 0.75 0.75 0.75)
(0.722222 0.722222 0.722222 0.833333 0.833333 0.833333 0.85 0.85 0.85)
(0.722223 0.722223 0.722223 0.833334 0.833334 0.833334 0.95 0.95 0.95)
(0.722222 0.722222 0.722222 0.722222 0.722222 0.722222 0.05 0.05 0.05)
(0.722222 0.722222 0.722222 0.722222 0.722222 0.722222 0.15 0.15 0.15)
(0.722222 0.722222 0.722222 0.722222 0.722222 0.722222 0.25 0.25 0.25)
(0.722222 0.722222 0.722222 0.722222 0.722222 0.722222 0.35 0.35 0.35)
(0.722222 0.722222 0.722222 0.722223 0.722223 0.722223 0.45 0.45 0.45)
(0.722222 0.722222 0.722222 0.722223 0.722223 0.722223 0.55 0.55 0.55)
(0.722222 0.722222 0.722222 0.722223 0.722223 0.722223 0.65 0.65 0.65)
(0.722222 0.722222 0.722222 0.722222 0.722222 0.722222 0.75 0.75 0.75)
(0.722222 0.722222 0.722222 0.722223 0.722223 0.722223 0.85 0.85 0.85)
(0.722222 0.722222 0.722222 0.722223 0.722223 0.722223 0.95 0.95 0.95)
(0.722222 0.722222 0.722222 0.611111 0.611111 0.611111 0.05 0.05 0.05)
(0.722223 0.722223 0.722223 0.611112 0.611112 0.611112 0.15 0.15 0.15)
(0.722222 0.722222 0.722222 0.611112 0.611112 0.611112 0.25 0.25 0.25)
(0.722222 0.722222 0.722222 0.611112 0.611112 0.611112 0.35 0.35 0.35)
(0.722222 0.722222 0.722222 0.611112 0.611112 0.611112 0.45 0.45 0.45)
(0.722222 0.722222 0.722222 0.611111 0.611111 0.611111 0.55 0.55 0.55)
(0.722222 0.722222 0.722222 0.611112 0.611112 0.611112 0.65 0.65 0.65)
(0.722222 0.722222 0.722222 0.611112 0.611112 0.611112 0.75 0.75 0.75)
(0.722222 0.722222 0.722222 0.611112 0.611112 0.611112 0.85 0.85 0.85)
(0.722222 0.722222 0.722222 0.611112 0.611112 0.611112 0.95 0.95 0.95)
(0.722222 0.722222 0.722222 0.5 0.5 0.5 0.05 0.05 0.05)
(0.722222 0.722222 0.722222 0.5 0.5 0.5 0.15 0.15 0.15)
(0.722222 0.722222 0.722222 0.5 0.5 0.5 0.25 0.25 0.25)
(0.722222 0.722222 0.722222 0.5 0.5 0.5 0.35 0.35 0.35)
(0.722222 0.722222 0.722222 0.5 0.5 0.5 0.45 0.45 0.45)
(0.722222 0.722222 0.722222 0.5 0.5 0.5 0.55 0.55 0.55)
(0.722223 0.722223 0.722223 0.5 0.5 0.5 0.65 0.65 0.65)
(0.722222 0.722222 0.722222 0.5 0.5 0.5 0.75 0.75 0.75)
(0.722222 0.722222 0.722222 0.5 0.5 0.5 0.85 0.85 0.85)
(0.722223 0.722223 0.722223 0.5 0.5 0.5 0.95 0.95 0.95)
(0.722222 0.722222 0.722222 0.388889 0.388889 0.388889 0.05 0.05 0.05)
(0.722222 0.722222 0.722222 0.388888 0.388888 0.388888 0.15 0.15 0.15)
(0.722222 0.722222 0.722222 0.388888 0.388888 0.388888 0.25 0.25 0.25)
(0.722222 0.722222 0.722222 0.388889 0.388889 0.388889 0.35 0.35 0.35)
(0.722222 0.722222 0.722222 0.388888 0.388888 0.388888 0.45 0.45 0.45)
(0.722222 0.722222 0.722222 0.388888 0.388888 0.388888 0.55 0.55 0.55)
(0.722222 0.722222 0.722222 0.388888 0.388888 0.388888 0.65 0.65 0.65)
(0.722222 0.722222 0.722222 0.388888 0.388888 0.388888 0.75 0.75 0.75)
(0.722222 0.722222 0.722222 0.388888 0.388888 0.388888 0.85 0.85 0.85)
(0.722222 0.722222 0.722222 0.388889 0.388889 0.388889 0.95 0.95 0.95)
(0.722222 0.722222 0.722222 0.277778 0.277778 0.277778 0.05 0.05 0.05)
(0.722222 0.722222 0.722222 0.277778 0.277778 0.277778 0.15 0.15 0.15)
(0.722222 0.722222 0.722222 0.277778 0.277778 0.277778 0.25 0.25 0.25)
(0.722222 0.722222 0.722222 0.277778 0.277778 0.277778 0.35 0.35 0.35)
(0.722222 0.722222 0.722222 0.277777 0.277777 0.277777 0.45 0.45 0.45)
(0.722222 0.722222 0.722222 0.277777 0.277777 0.277777 0.55 0.55 0.55)
(0.722222 0.722222 0.722222 0.277778 0.277778 0.277778 0.65 0.65 0.65)
(0.722223 0.722223 0.722223 0.277778 0.277778 0.277778 0.75 0.75 0.75)
(0.722222 0.722222 0.722222 0.277777 0.277777 0.277777 0.85 0.85 0.85)
(0.722222 0.722222 0.722222 0.277777 0.277777 0.277777 0.95 0.95 0.95)
(0.722222 0.722222 0.722222 0.166666 0.166666 0.166666 0.05 0.05 0.05)
(0.722222 0.722222 0.722222 0.166666 0.166666 0.166666 0.15 0.15 0.15)
(0.722222 0.722222 0.722222 0.166666 0.166666 0.166666 0.25 0.25 0.25)
(0.722222 0.722222 0.722222 0.166666 0.166666 0.166666 0.35 0.35 0.35)
(0.722222 0.722222 0.722222 0.166666 0.166666 0.166666 0.45 0.45 0.45)
(0.722222 0.722222 0.722222 0.166666 0.166666 0.166666 0.55 0.55 0.55)
(0.722222 0.722222 0.722222 0.166666 0.166666 0.166666 0.65 0.65 0.65)
(0.722222 0.722222 0.722222 0.166666 0.166666 0.166666 0.75 0.75 0.75)
(0.722222 0.722222 0.722222 0.166666 0.166666 0.166666 0.85 0.85 0.85)
(0.722222 0.722222 0.722222 0.166666 0.166666 0.166666 0.95 0.95 0.95)
(0.722222 0.722222 0.722222 0.0555555 0.0555555 0.0555555 0.05 0.05 0.05)
(0.722222 0.722222 0.722222 0.0555555 0.0555555 0.0555555 0.15 0.15 0.15)
(0.722222 0.722222 0.722222 0.0555555 0.0555555 0.0555555 0.25 0.25 0.25)
(0.722222 0.722222 0.722222 0.0555555 0.0555555 0.0555555 0.35 0.35 0.35)
(0.722222 0.722222 0.722222 0.0555555 0.0555555 0.0555555 0.45 0.45 0.45)
(0.722222 0.722222 0.722222 0.0555555 0.0555555 0.0555555 0.55 0.55 0.55)
(0.722222 0.722222 0.722222 0.0555555 0.0555555 0.0555555 0.65 0.65 0.65)
(0.722223 0.722223 0.722223 0.0555555 0.0555555 0.0555555 0.75 0.75 0.75)
(0.722222 0.722222 0.722222 0.0555555 0.0555555 0.0555555 0.85 0.85 0.85)
(0.722222 0.722222 0.722222 0.0555555 0.0555555 0.0555555 0.95 0.95 0.95)
(0.611112 0.611112 0.611112 0.944445 0.944445 0.944445 0.05 0.05 0.05)
(0.611111 0.611111 0.611111 0.944445 0.944445 0.944445 0.15 0.15 0.15)
(0.611112 0.611112 0.611112 0.944444 0.944444 0.944444 0.25 0.25 0.25)
(0.611112 0.611112 0.611112 0.944445 0.944445 0.944445 0.35 0.35 0.35)
(0.611111 0.611111 0.611111 0.944445 0.944445 0.944445 0.45 0.45 0.45)
(0.611111 0.611111 0.611111 0.944445 0.944445 0.944445 0.55 0.55 0.55)
(0.611111 0.611111 0.611111 0.944444 0.944444 0.944444 0.65 0.65 0.65)
(0.611112 0.611112 0.611112 0.944445 0.944445 0.944445 0.75 0.75 0.75)
(0.611112 0.611112 0.611112 0.944444 0.944444 0.944444 0.85 0.85 0.85)
(0.611112 0.611112 0.611112 0.944445 0.944445 0.944445 0.95 0.95 0.95)
(0.611112 0.611112 0.611112 0.833333 0.833333 0.833333 0.05 0.05 0.05)
(0.611111 0.611111 0.611111 0.833333 0.833333 0.833333 0.15 0.15 0.15)
(0.611112 0.611112 0.611112 0.833333 0.833333 0.833333 0.25 0.25 0.25)
(0.611111 0.611111 0.611111 0.833333 0.833333 0.833333 0.35 0.35 0.35)
(0.611111 0.611111 0.611111 0.833333 0.833333 0.833333 0.45 0.45 0.45)
(0.611111 0.611111 0.611111 0.833333 0.833333 0.833333 0.55 0.55 0.55)
(0.611112 0.611112 0.611112 0.833333 0.833333 0.833333 0.65 0.65 0.65)
(0.611112 0.611112 0.611112 0.833333 0.833333 0.833333 0.75 0.75 0.75)
(0.611112 0.611112 0.611112 0.833334 0.833334 0.833334 0.85 0.85 0.85)
(0.611112 0.611112 0.611112 0.833333 0.833333 0.833333 0.95 0.95 0.95)
(0.611112 0.611112 0.611112 0.722222 0.722222 0.722222 0.05 0.05 0.05)
(0.611112 0.611112 0.611112 0.722223 0.722223 0.722223 0.15 0.15 0.15)
(0.611112 0.611112 0.611112 0.722222 0.722222 0.722222 0.25 0.25 0.25)
(0.611112 0.611112 0.611112 0.722222 0.722222 0.722222 0.35 0.35 0.35)
(0.611112 0.611112 0.611112 0.722223 0.722223 0.722223 0.45 0.45 0.45)
(0.611111 0.611111 0.611111 0.722223 0.722223 0.722223 0.55 0.55 0.55)
(0.611112 0.611112 0.611112 0.722223 0.722223 0.722223 0.65 0.65 0.65)
(0.611112 0.611112 0.611112 0.722222 0.722222 0.722222 0.75 0.75 0.75)
(0.611112 0.611112 0.611112 0.722223 0.722223 0.722223 0.85 0.85 0.85)
(0.611112 0.611112 0.611112 0.722223 0.722223 0.722223 0.95 0.95 0.95)
(0.611112 0.611112 0.611112 0.611112 0.611112 0.611112 0.05 0.05 0.05)
(0.611112 0.611112 0.611112 0.611112 0.611112 0.611112 0.15 0.15 0.15)
(0.611112 0.611112 0.611112 0.611112 0.611112 0.611112 0.25 0.25 0.25)
(0.611112 0.611112 0.611112 0.611112 0.611112 0.611112 0.35 0.35 0.35)
(0.611112 0.611112 0.611112 0.611112 0.611112 0.611112 0.45 0.45 0.45)
(0.611112 0.611112 0.611112 0.611112 0.611112 0.611112 0.55 0.55 0.55)
(0.611112 0.611112 0.611112 0.611112 0.611112 0.611112 0.65 0.65 0.65)
(0.611112 0.611112 0.611112 0.611111 0.611111 0.611111 0.75 0.75 0.75)
(0.611112 0.611112 0.611112 0.611112 0.611112 0.611112 0.85 0.85 0.85)
(0.611112 0.611112 0.611112 0.611112 0.611112 0.611112 0.95 0.95 0.95)
(0.611112 0.611112 0.611112 0.5 0.5 0.5 0.05 0.05 0.05)
(0.611111 0.611111 0.611111 0.5 0.5 0.5 0.15 0.15 0.15)
(0.611112 0.611112 0.611112 0.5 0.5 0.5 0.25 0.25 0.25)
(0.611111 0.611111 0.611111 0.5 0.5 0.5 0.35 0.35 0.35)
(0.611112 0.611112 0.611112 0.5 0.5 0.5 0.45 0.45 0.45)
(0.611112 0.611112 0.611112 0.5 0.5 0.5 0.55 0.55 0.55)
(0.611112 0.611112 0.611112 0.5 0.5 0.5 0.65 0.65 0.65)
(0.611111 0.611111 0.611111 0.5 0.5 0.5 0.75 0.75 0.75)
(0.611111 0.611111 0.611111 0.5 0.5 0.5 0.85 0.85 0.85)
(0.611112 0.611112 0.611112 0.5 0.5 0.5 0.95 0.95 0.95)
(0.611112 0.611112 0.611112 0.388888 0.388888 0.388888 0.05 0.05 0.05)
(0.611112 0.611112 0.611112 0.388888 0.388888 0.388888 0.15 0.15 0.15)
(0.611112 0.611112 0.611112 0.388889 0.388889 0.388889 0.25 0.25 0.25)
(0.611112 0.611112 0.611112 0.388889 0.388889 0.388889 0.35 0.35 0.35)
(0.611112 0.611112 0.611112 0.388888 0.388888 0.388888 0.45 0.45 0.45)
(0.611112 0.611112 0.611112 0.388888 0.388888 0.388888 0.55 0.55 0.55)
(0.611111 0.611111 0.611111 0.388888 0.388888 0.388888 0.65 0.65 0.65)
(0.611112 0.611112 0.611112 0.388888 0.388888 0.388888 0.75 0.75 0.75)
(0.611112 0.611112 0.611112 0.388888 0.388888 0.388888 0.85 0.85 0.85)
(0.611111 0.611111 0.611111 0.388888 0.388888 0.388888 0.95 0.95 0.95)
(0.611111 0.611111 0.611111 0.277777 0.277777 0.277777 0.05 0.05 0.05)
(0.611111 0.611111 0.611111 0.277778 0.277778 0.277778 0.15 0.15 0.15)
(0.611112 0.611112 0.611112 0.277778 0.277778 0.277778 0.25 0.25 0.25)
(0.611112 0.611112 0.611112 0.277777 0.277777 0.277777 0.35 0.35 0.35)
(0.611112 0.611112 0.611112 0.277778 0.277778 0.277778 0.45 0.45 0.45)
(0.611112 0.611112 0.611112 0.277777 0.277777 0.277777 0.55 0.55 0.55)
(0.611112 0.611112 0.611112 0.277778 0.277778 0.277778 0.65 0.65 0.65)
(0.611112 0.611112 0.611112 0.277778 0.277778 0.277778 0.75 0.75 0.75)
(0.611111 0.611111 0.611111 0.277777 0.277777 0.277777 0.85 0.85 0.85)
(0.611111 0.611111 0.611111 0.277778 0.277778 0.277778 0.95 0.95 0.95)
(0.611112 0.611112 0.611112 0.166667 0.166667 0.166667 0.05 0.05 0.05)
(0.611112 0.611112 0.611112 0.166666 0.166666 0.166666 0.15 0.15 0.15)
(0.611112 0.611112 0.611112 0.166666 0.166666 0.166666 0.25 0.25 0.25)
(0.611112 0.611112 0.611112 0.166666 0.166666 0.166666 0.35 0.35 0.35)
(0.611112 0.611112 0.611112 0.166667 0.166667 0.166667 0.45 0.45 0.45)
(0.611112 0.611112 0.611112 0.166666 0.166666 0.166666 0.55 0.55 0.55)
(0.611112 0.611112 0.611112 0.166666 0.166666 0.166666 0.65 0.65 0.65)
(0.611111 0.611111 0.611111 0.166666 0.166666 0.166666 0.75 0.75 0.75)
(0.611111 0.611111 0.611111 0.166666 0.166666 0.166666 0.85 0.85 0.85)
(0.611112 0.611112 0.611112 0.166666 0.166666 0.166666 0.95 0.95 0.95)
(0.611112 0.611112 0.611112 0.0555555 0.0555555 0.0555555 0.05 0.05 0.05)
(0.611111 0.611111 0.611111 0.0555555 0.0555555 0.0555555 0.15 0.15 0.15)
(0.611112 0.611112 0.611112 0.0555555 0.0555555 0.0555555 0.25 0.25 0.25)
(0.611111 0.611111 0.611111 0.0555555 0.0555555 0.0555555 0.35 0.35 0.35)
(0.611111 0.611111 0.611111 0.0555555 0.0555555 0.0555555 0.45 0.45 0.45)
(0.611111 0.611111 0.611111 0.0555555 0.0555555 0.0555555 0.55 0.55 0.55)
(0.611111 0.611111 0.611111 0.0555555 0.0555555 0.0555555 0.65 0.65 0.65)
(0.611112 0.611112 0.611112 0.0555555 0.0555555 0.0555555 0.75 0.75 0.75)
(0.611111 0.611111 0.611111 0.0555555 0.0555555 0.0555555 0.85 0.85 0.85)
(0.611111 0.611111 0.611111 0.0555555 0.0555555 0.0555555 0.95 0.95 0.95)
(0.5 0.5 0.5 0.944445 0.944445 0.944445 0.05 0.05 0.05)
(0.5 0.5 0.5 0.944445 0.944445 0.944445 0.15 0.15 0.15)
(0.5 0.5 0.5 0.944444 0.944444 0.944444 0.25 0.25 0.25)
(0.5 0.5 0.5 0.944445 0.944445 0.944445 0.35 0.35 0.35)
(0.5 0.5 0.5 0.944445 0.944445 0.944445 0.45 0.45 0.45)
(0.5 0.5 0.5 0.944445 0.944445 0.944445 0.55 0.55 0.55)
(0.5 0.5 0.5 0.944444 0.944444 0.944444 0.65 0.65 0.65)
(0.5 0.5 0.5 0.944445 0.944445 0.944445 0.75 0.75 0.75)
(0.5 0.5 0.5 0.944444 0.944444 0.944444 0.85 0.85 0.85)
(0.5 0.5 0.5 0.944444 0.944444 0.944444 0.95 0.95 0.95)
(0.5 0.5 0.5 0.833333 0.833333 0.833333 0.05 0.05 0.05)
(0.5 0.5 0.5 0.833333 0.833333 0.833333 0.15 0.15 0.15)
(0.5 0.5 0.5 0.833333 0.833333 0.833333 0.25 0.25 0.25)
(0.5 0.5 0.5 0.833333 0.833333 0.833333 0.35 0.35 0.35)
(0.5 0.5 0.5 0.833333 0.833333 0.833333 0.45 0.45 0.45)
(0.5 0.5 0.5 0.833333 0.833333 0.833333 0.55 0.55 0.55)
(0.5 0.5 0.5 0.833334 0.833334 0.833334 0.65 0.65 0.65)
(0.5 0.5 0.5 0.833333 0.833333 0.833333 0.75 0.75 0.75)
(0.5 0.5 0.5 0.833334 0.833334 0.833334 0.85 0.85 0.85)
(0.5 0.5 0.5 0.833333 0.833333 0.833333 0.95 0.95 0.95)
(0.5 0.5 0.5 0.722222 0.722222 0.722222 0.05 0.05 0.05)
(0.5 0.5 0.5 0.722222 0.722222 0.722222 0.15 0.15 0.15)
(0.5 0.5 0.5 0.722222 0.722222 0.722222 0.25 0.25 0.25)
(0.5 0.5 0.5 0.722222 0.722222 0.722222 0.35 0.35 0.35)
(0.5 0.5 0.5 0.722222 0.722222 0.722222 0.45 0.45 0.45)
(0.5 0.5 0.5 0.722222 0.722222 0.722222 0.55 0.55 0.55)
(0.5 0.5 0.5 0.722222 0.722222 0.722222 0.65 0.65 0.65)
(0.5 0.5 0.5 0.722222 0.722222 0.722222 0.75 0.75 0.75)
(0.5 0.5 0.5 0.722222 0.722222 0.722222 0.85 0.85 0.85)
(0.5 0.5 0.5 0.722222 0.722222 0.722222 0.95 0.95 0.95)
(0.5 0.5 0.5 0.611112 0.611112 0.611112 0.05 0.05 0.05)
(0.5 0.5 0.5 0.611111 0.611111 0.611111 0.15 0.15 0.15)
(0.5 0.5 0.5 0.611112 0.611112 0.611112 0.25 0.25 0.25)
(0.5 0.5 0.5 0.611111 0.611111 0.611111 0.35 0.35 0.35)
(0.5 0.5 0.5 0.611112 0.611112 0.611112 0.45 0.45 0.45)
(0.5 0.5 0.5 0.611111 0.611111 0.611111 0.55 0.55 0.55)
(0.5 0.5 0.5 0.611112 0.611112 0.611112 0.65 0.65 0.65)
(0.5 0.5 0.5 0.611112 0.611112 0.611112 0.75 0.75 0.75)
(0.5 0.5 0.5 0.611112 0.611112 0.611112 0.85 0.85 0.85)
(0.5 0.5 0.5 0.611112 0.611112 0.611112 0.95 0.95 0.95)
(0.5 0.5 0.5 0.5 0.5 0.5 0.05 0.05 0.05)
(0.5 0.5 0.5 0.5 0.5 0.5 0.15 0.15 0.15)
(0.5 0.5 0.5 0.5 0.5 0.5 0.25 0.25 0.25)
(0.5 0.5 0.5 0.5 0.5 0.5 0.35 0.35 0.35)
(0.5 0.5 0.5 0.5 0.5 0.5 0.45 0.45 0.45)
(0.5 0.5 0.5 0.5 0.5 0.5 0.55 0.55 0.55)
(0.5 0.5 0.5 0.5 0.5 0.5 0.65 0.65 0.65)
(0.5 0.5 0.5 0.5 0.5 0.5 0.75 0.75 0.75)
(0.5 0.5 0.5 0.5 0.5 0.5 0.85 0.85 0.85)
(0.5 0.5 0.5 0.5 0.5 0.5 0.95 0.95 0.95)
(0.5 0.5 0.5 0.388888 0.388888 0.388888 0.05 0.05 0.05)
(0.5 0.5 0.5 0.388888 0.388888 0.388888 0.15 0.15 0.15)
(0.5 0.5 0.5 0.388888 0.388888 0.388888 0.25 0.25 0.25)
(0.5 0.5 0.5 0.388888 0.388888 0.388888 0.35 0.35 0.35)
(0.5 0.5 0.5 0.388888 0.388888 0.388888 0.45 0.45 0.45)
(0.5 0.5 0.5 0.388888 0.388888 0.388888 0.55 0.55 0.55)
(0.5 0.5 0.5 0.388888 0.388888 0.388888 0.65 0.65 0.65)
(0.5 0.5 0.5 0.388888 0.388888 0.388888 0.75 0.75 0.75)
(0.5 0.5 0.5 0.388888 0.388888 0.388888 0.85 0.85 0.85)
(0.5 0.5 0.5 0.388889 0.388889 0.388889 0.95 0.95 0.95)
(0.5 0.5 0.5 0.277778 0.277778 0.277778 0.05 0.05 0.05)
(0.5 0.5 0.5 0.277777 0.277777 0.277777 0.15 0.15 0.15)
(0.5 0.5 0.5 0.277778 0.277778 0.277778 0.25 0.25 0.25)
(0.5 0.5 0.5 0.277778 0.277778 0.277778 0.35 0.35 0.35)
(0.5 0.5 0.5 0.277777 0.277777 0.277777 0.45 0.45 0.45)
(0.5 0.5 0.5 0.277778 0.277778 0.277778 0.55 0.55 0.55)
(0.5 0.5 0.5 0.277778 0.277778 0.277778 0.65 0.65 0.65)
(0.5 0.5 0.5 0.277777 0.277777 0.277777 0.75 0.75 0.75)
(0.5 0.5 0.5 0.277777 0.277777 0.277777 0.85 0.85 0.85)
(0.5 0.5 0.5 0.277778 0.277778 0.277778 0.95 0.95 0.95)
(0.5 0.5 0.5 0.166666 0.166666 0.166666 0.05 0.05 0.05)
(0.5 0.5 0.5 0.166666 0.166666 0.166666 0.15 0.15 0.15)
(0.5 0.5 0.5 0.166666 0.166666 0.166666 0.25 0.25 0.25)
(0.5 0.5 0.5 0.166666 0.166666 0.166666 0.35 0.35 0.35)
(0.5 0.5 0.5 0.166666 0.166666 0.166666 0.45 0.45 0.45)